file 21681615 1751495661                                        
version 3
run ValidationTest1-35-20250703-00:34:20-28913
attr configname ValidationTest1
attr datetime 20250703-00:34:20
attr datetimef 20250703-003420
attr experiment ValidationTest1
attr inifile omnetpp.ini
attr iterationvars $arrivalRate=35000
attr iterationvarsd arrivalRate=35000
attr iterationvarsf arrivalRate=35000-
attr measurement $arrivalRate=35000
attr network cellularroundrobin.CellularNetwork
attr processid 28913
attr repetition 5
attr replication #5
attr resultdir results
attr runnumber 35
attr seedset 5
itervar arrivalRate 35000
config description "Single user with fixed packet size and CQI 15"
config sim-time-limit 20s
config warmup-period 10s
config *.numUsers 1
config *.user[0].arrivalPattern "\"fixed\""
config *.user[0].packetPattern "\"fixed\""
config *.user[0].maxPacketSize 75B
config *.user[0].cqiModel "\"fixed\""
config *.user[0].cqi 15
config *.user[0].arrivalRate 35000Hz
config network cellularroundrobin.CellularNetwork
config sim-time-limit 100s
config warmup-period 10s
config repeat 10
config seed-set 5
config num-rngs 40
config **.statistic-recording true
config **.scalar-recording true
config **.vector-recording true
config output-scalar-file results/ValidationTest1-$arrivalRate=35000-5.sca
config output-vector-file results/ValidationTest1-$arrivalRate=35000-5.vec
config *.numUsers 10
config *.baseStation.numResourceBlocks 25
config *.baseStation.ttiDuration 1ms
config *.baseStation.schedulingAlgorithm "\"RoundRobin\""
config *.user[*].arrivalRngId "3*index + 0"
config *.user[*].sizeRngId "3*index + 1"
config *.user[*].cqiRngId "3*index + 2"

vector 0 CellularNetwork.baseStation.queue[0] queueLength:vector ETV
attr recordingmode vector
attr source queueLength
vector 1 CellularNetwork.baseStation.queue[0] responseTime:vector ETV
attr recordingmode vector
attr source userResponseTime
vector 2 CellularNetwork.baseStation.queue[0] bytesTransmitted:vector ETV
attr recordingmode vector
attr source userBytesTransmitted
vector 3 CellularNetwork.baseStation.scheduler systemTransmittedBytes:vector ETV
attr recordingmode vector
attr source transmittedBytes
0	2110 1036732 1099996 1200118 10 10.910171592224 32768 39999 43670 1370847360 57385520026752
1	1038842 1041183 1099996 1216266 10 11.057 32768 1.14285701 1.264514138827 39440.557331164 47511.701665847
0	2080025 1036743 1200121 1300242 10.910200163653 11.820400177306 32768 43643 47310 1490152064 67802105489024
1	3116768 1041246 1216266 1332536 11.057 12.114 32768 1.263656995957 1.385314124784 43399.052042417 57519.030745731
0	4158014 1036745 1300245 1400366 11.820428748735 12.730628762388 32768 47283 50950 1609456768 79087442122880
1	5194759 1041277 1332536 1448806 12.114 13.171 32768 1.384456981914 1.506114110741 47357.546753671 68482.761208144
0	6236036 1036744 1400369 1500490 12.730657333817 13.64085734747 32768 50923 54590 1728761472 91241529928320
1	7272780 1041276 1448806 1565076 13.171 14.228 32768 1.505256967871 1.626914096698 51316.041464924 80402.893053087
0	8314056 1036736 1500493 1600616 13.640885918899 14.551057361123 32768 54563 58234 1848066048 1.042643540009e+14
1	9350792 1041279 1565076 1681346 14.228 15.285 32768 1.626056953828 1.747714082655 55274.536176178 93279.42628056
0	10392071 1036743 1600619 1700740 14.551085932552 15.461285946205 32768 58207 61874 1967370624 1.1815592644646e+14
1	11428814 1041246 1681346 1797616 15.285 16.342 32768 1.746856939785 1.868514068612 59233.030887431 107112.36089056
0	12470060 1036744 1700743 1800864 15.461314517634 16.371514531287 32768 61847 65514 2086675328 1.329162640352e+14
0	13506804 1036745 1800867 1900988 16.371543102716 17.281743116369 32768 65487 69154 2205980032 1.4854535279552e+14
1	14543549 1041308 1797616 1913886 16.342 17.399 32768 1.867656925742 1.989314054569 63191.525598685 121901.69688309
0	15584857 1036745 1900991 2001112 17.281771687798 18.191971701451 32768 69127 72798 2325284736 1.6504319272742e+14
1	16621602 1041245 1913886 2030156 17.399 18.456 32768 1.988456911699 2.110114040526 67150.020309938 137647.43425816
0	17662847 1036735 2001116 2101238 18.192 19.102171715104 32768 72767 76438 2444589184 1.8240974470054e+14
1	18699582 1041247 2030156 2146426 18.456 19.513 32768 2.109256897656 2.230914026483 71108.515021192 154349.57301575
0	19740829 1022599 2101241 2199996 19.102200286533 20 32321 76411 80030 2528116383 1.9778148162698e+14
1	20763428 480390 2146426 2199996 19.513 20 15119 2.230056883613 2.28657116287 34143.697345931 77111.665145304
2	21243818 218898 1099996 2199996 10 20 10001 2325 2325 23252325 54061655625
3	21462716 218898 1099996 2199996 10 20 10001 2325 2325 23252325 54061655625

